REMARK  Name = ./ligands/ligand_0.pdb
REMARK  2 active torsions:
REMARK  status: ('A' for Active; 'I' for Inactive)
REMARK    1  A    between atoms: C_1  and  C_2
REMARK    2  A    between atoms: C_2  and  O_3
REMARK                            x       y       z     vdW  Elec       q    Type
REMARK                         _______ _______ _______ _____ _____    ______ ____
ROOT
ATOM      1  C   UNL     1       0.937   0.072   0.017  0.00  0.00    +0.000 C 
ATOM      2  C   UNL     1       0.441  -0.361   1.381  0.00  0.00    +0.000 C 
ENDROOT
BRANCH   2   3
ATOM      3  O   UNL     1       0.913   0.536   2.376  0.00  0.00    +0.000 OA
ATOM      4  H   UNL     1       1.885   0.520   2.347  0.00  0.00    +0.000 HD
ENDBRANCH   2   3
TORSDOF 1
